;; SUC_kb.itp — REORDERED for GROMACS GPU update compatibility
;; Atom numbering updated to match suc_sorted.gro (H immediately after parent heavy atom)
;; suc_params_kb.itp is UNCHANGED (atom-type based, not position based)
;;
;; Original: CHARMM-GUI / psf2itp_mol.py
;; Reordered: to satisfy GROMACS constraint that all atoms in a molecule
;;            are consecutive for GPU update (-update gpu)

[ moleculetype ]
; name	nrexcl
SUC	     3

[ atoms ]
; nr      type  resnr residu  atom  cgnr    charge      mass
     1     CG321      1    SUC    C1     1     0.150   12.0110
     2      HGA2      1    SUC    H1     2     0.090    1.0080
     3      HGA2      1    SUC    H2     3     0.090    1.0080
     4     CG311      1    SUC    C2     4     0.210   12.0110
     5      HGA1      1    SUC    H3     5     0.090    1.0080
     6     CG311      1    SUC    C3     6     0.180   12.0110
     7      HGA1      1    SUC    H4     7     0.090    1.0080
     8     CG311      1    SUC    C4     8     0.180   12.0110
     9      HGA1      1    SUC    H5     9     0.090    1.0080
    10     CG311      1    SUC    C5    10     0.180   12.0110
    11      HGA1      1    SUC    H6    11     0.090    1.0080
    12     CG311      1    SUC    C6    12     0.300   12.0110
    13      HGA1      1    SUC    H7    13     0.090    1.0080
    14    OG3C61      1    SUC    O1    14    -0.380   15.9994
    15     OG301      1    SUC    O2    15    -0.340   15.9994
    16    CG3C50      1    SUC    C7    16     0.330   12.0110
    17    CG3C51      1    SUC    C8    17     0.180   12.0110
    18      HGA1      1    SUC    H8    18     0.090    1.0080
    19    CG3C51      1    SUC    C9    19     0.180   12.0110
    20      HGA1      1    SUC    H9    20     0.090    1.0080
    21    CG3C51      1    SUC   C10    21     0.210   12.0110
    22      HGA1      1    SUC   H10    22     0.090    1.0080
    23    OG3C51      1    SUC    O3    23    -0.380   15.9994
    24     CG321      1    SUC   C11    24     0.150   12.0110
    25      HGA2      1    SUC   H11    25     0.090    1.0080
    26      HGA2      1    SUC   H12    26     0.090    1.0080
    27     OG311      1    SUC    O4    27    -0.500   15.9994
    28      HGP1      1    SUC   H13    28     0.180    1.0080
    29     OG311      1    SUC    O5    29    -0.500   15.9994
    30      HGP1      1    SUC   H14    30     0.180    1.0080
    31     OG311      1    SUC    O6    31    -0.500   15.9994
    32      HGP1      1    SUC   H15    32     0.180    1.0080
    33     CG321      1    SUC   C12    33     0.150   12.0110
    34      HGA2      1    SUC   H16    34     0.090    1.0080
    35      HGA2      1    SUC   H17    35     0.090    1.0080
    36     OG311      1    SUC    O7    36    -0.500   15.9994
    37      HGP1      1    SUC   H18    37     0.180    1.0080
    38     OG311      1    SUC    O8    38    -0.500   15.9994
    39      HGP1      1    SUC   H19    39     0.180    1.0080
    40     OG311      1    SUC    O9    40    -0.500   15.9994
    41      HGP1      1    SUC   H20    41     0.180    1.0080
    42     OG311      1    SUC   O10    42    -0.500   15.9994
    43      HGP1      1    SUC   H21    43     0.180    1.0080
    44     OG311      1    SUC   O11    44    -0.500   15.9994
    45      HGP1      1    SUC   H22    45     0.180    1.0080

[ bonds ]
; ai   aj  funct
    1    4     1
    1   44     1
    1    2     1
    1    3     1
    4    6     1
    4   14     1
    4    5     1
    6    8     1
    6   42     1
    6    7     1
    8   10     1
    8   40     1
    8    9     1
   10   12     1
   10   38     1
   10   11     1
   12   14     1
   12   15     1
   12   13     1
   15   16     1
   16   17     1
   16   23     1
   16   33     1
   17   19     1
   17   31     1
   17   18     1
   19   21     1
   19   29     1
   19   20     1
   21   23     1
   21   24     1
   21   22     1
   24   27     1
   24   25     1
   24   26     1
   27   28     1
   29   30     1
   31   32     1
   33   36     1
   33   34     1
   33   35     1
   36   37     1
   38   39     1
   40   41     1
   42   43     1
   44   45     1

[ pairs ]
; ai   aj  funct
    1    8     1
    1   12     1
    1   42     1
    1    7     1
    4   10     1
    4   15     1
    4   40     1
    4    9     1
    4   13     1
    4   43     1
    4   45     1
    6   12     1
    6   38     1
    6   44     1
    6    2     1
    6    3     1
    6   11     1
    6   41     1
    8   14     1
    8   15     1
    8    5     1
    8   13     1
    8   39     1
    8   43     1
   10   16     1
   10   42     1
   10    7     1
   10   41     1
   12   17     1
   12   23     1
   12   33     1
   12   40     1
   12    5     1
   12    9     1
   12   39     1
   14   16     1
   14   38     1
   14   42     1
   14   44     1
   14    2     1
   14    3     1
   14    7     1
   14   11     1
   15   19     1
   15   21     1
   15   31     1
   15   36     1
   15   38     1
   15   11     1
   15   18     1
   15   34     1
   15   35     1
   16   24     1
   16   29     1
   16   13     1
   16   20     1
   16   22     1
   16   32     1
   16   37     1
   17   24     1
   17   36     1
   17   22     1
   17   30     1
   17   34     1
   17   35     1
   19   27     1
   19   33     1
   19   25     1
   19   26     1
   19   32     1
   21   31     1
   21   33     1
   21   18     1
   21   28     1
   21   30     1
   23   27     1
   23   29     1
   23   31     1
   23   36     1
   23   18     1
   23   20     1
   23   25     1
   23   26     1
   23   34     1
   23   35     1
   24   29     1
   24   20     1
   27   22     1
   29   31     1
   29   18     1
   29   22     1
   31   33     1
   31   20     1
   33   18     1
   38   40     1
   38    9     1
   38   13     1
   40   42     1
   40    7     1
   40   11     1
   42    5     1
   42    9     1
   44    5     1
    2    5     1
    2   45     1
    3    5     1
    3   45     1
    5    7     1
    7    9     1
    7   43     1
    9   11     1
    9   41     1
   11   13     1
   11   39     1
   18   20     1
   18   32     1
   20   22     1
   20   30     1
   22   25     1
   22   26     1
   25   28     1
   26   28     1
   34   37     1
   35   37     1

[ angles ]
; ai   aj   ak  funct
    4    1   44     5
    4    1    2     5
    4    1    3     5
   44    1    2     5
   44    1    3     5
    2    1    3     5
    1    4    6     5
    1    4   14     5
    1    4    5     5
    6    4   14     5
    6    4    5     5
   14    4    5     5
    4    6    8     5
    4    6   42     5
    4    6    7     5
    8    6   42     5
    8    6    7     5
   42    6    7     5
    6    8   10     5
    6    8   40     5
    6    8    9     5
   10    8   40     5
   10    8    9     5
   40    8    9     5
    8   10   12     5
    8   10   38     5
    8   10   11     5
   12   10   38     5
   12   10   11     5
   38   10   11     5
   10   12   14     5
   10   12   15     5
   10   12   13     5
   14   12   15     5
   14   12   13     5
   15   12   13     5
    4   14   12     5
   12   15   16     5
   15   16   17     5
   15   16   23     5
   15   16   33     5
   17   16   23     5
   17   16   33     5
   23   16   33     5
   16   17   19     5
   16   17   31     5
   16   17   18     5
   19   17   31     5
   19   17   18     5
   31   17   18     5
   17   19   21     5
   17   19   29     5
   17   19   20     5
   21   19   29     5
   21   19   20     5
   29   19   20     5
   19   21   23     5
   19   21   24     5
   19   21   22     5
   23   21   24     5
   23   21   22     5
   24   21   22     5
   16   23   21     5
   21   24   27     5
   21   24   25     5
   21   24   26     5
   27   24   25     5
   27   24   26     5
   25   24   26     5
   24   27   28     5
   19   29   30     5
   17   31   32     5
   16   33   36     5
   16   33   34     5
   16   33   35     5
   36   33   34     5
   36   33   35     5
   34   33   35     5
   33   36   37     5
   10   38   39     5
    8   40   41     5
    6   42   43     5
    1   44   45     5

[ dihedrals ]
; ai   aj   ak   al  funct
   44    1    4    5     9
    2    1    4    5     9
    3    1    4    5     9
    4    1   44   45     9
    2    1   44   45     9
    3    1   44   45     9
    6    4    1   44     9
    6    4    1    2     9
    6    4    1    3     9
   14    4    1   44     9
   14    4    1    2     9
   14    4    1    3     9
    1    4    6    8     9
    1    4    6   42     9
    1    4    6    7     9
   14    4    6   42     9
   14    4    6    7     9
    5    4    6    7     9
    1    4   14   12     9
    6    4   14   12     9
    8    6    4   14     9
    8    6    4    5     9
   42    6    4    5     9
    4    6    8   10     9
    4    6    8   40     9
    4    6    8    9     9
   42    6    8    9     9
    7    6    8    9     9
    4    6   42   43     9
    8    6   42   43     9
    7    6   42   43     9
   10    8    6   42     9
   10    8    6    7     9
   40    8    6   42     9
   40    8    6    7     9
    6    8   10   12     9
    6    8   10   38     9
    6    8   10   11     9
   40    8   10   11     9
    9    8   10   11     9
    6    8   40   41     9
   10    8   40   41     9
    9    8   40   41     9
   12   10    8   40     9
   12   10    8    9     9
   38   10    8   40     9
   38   10    8    9     9
    8   10   12   14     9
    8   10   12   15     9
    8   10   12   13     9
   38   10   12   13     9
   11   10   12   13     9
    8   10   38   39     9
   12   10   38   39     9
   11   10   38   39     9
   14   12   10   38     9
   14   12   10   11     9
   15   12   10   38     9
   15   12   10   11     9
   10   12   15   16     9
   14   12   15   16     9
   12   14    4    5     9
    4   14   12   10     9
    4   14   12   15     9
    4   14   12   13     9
   16   15   12   13     9
   12   15   16   17     9
   12   15   16   23     9
   12   15   16   33     9
   15   16   17   19     9
   15   16   17   31     9
   15   16   17   18     9
   23   16   17   31     9
   23   16   17   18     9
   33   16   17   18     9
   15   16   23   21     9
   17   16   23   21     9
   15   16   33   36     9
   15   16   33   34     9
   15   16   33   35     9
   17   16   33   36     9
   17   16   33   34     9
   17   16   33   35     9
   23   16   33   36     9
   23   16   33   34     9
   23   16   33   35     9
   19   17   16   23     9
   19   17   16   33     9
   31   17   16   33     9
   16   17   19   21     9
   16   17   19   29     9
   16   17   19   20     9
   31   17   19   20     9
   18   17   19   20     9
   16   17   31   32     9
   19   17   31   32     9
   18   17   31   32     9
   21   19   17   31     9
   21   19   17   18     9
   29   19   17   31     9
   29   19   17   18     9
   17   19   21   23     9
   17   19   21   24     9
   17   19   21   22     9
   29   19   21   22     9
   20   19   21   22     9
   17   19   29   30     9
   21   19   29   30     9
   20   19   29   30     9
   23   21   19   29     9
   23   21   19   20     9
   24   21   19   29     9
   24   21   19   20     9
   19   21   24   27     9
   19   21   24   25     9
   19   21   24   26     9
   23   21   24   27     9
   23   21   24   25     9
   23   21   24   26     9
   22   21   24   25     9
   22   21   24   26     9
   21   23   16   33     9
   16   23   21   19     9
   16   23   21   24     9
   16   23   21   22     9
   27   24   21   22     9
   21   24   27   28     9
   25   24   27   28     9
   26   24   27   28     9
   16   33   36   37     9
   34   33   36   37     9
   35   33   36   37     9
