[ atomtypes ]
; name    atnum    mass         charge  ptype   sigma               epsilon
OG311S      8     15.999400    0.000    A      0.314487247504      0.450
HGP1S       1      1.008000    0.000    A      0.040001352445      0.120

[ nonbond_params ]
; i         j       funct    sigma               epsilon
OG311S    OT          1      0.314772335094      0.75680
OG311S    HT          1      0.177244299975      0.41619
HGP1S     OT          1      0.177529387564      0.43694
HGP1S     HT          1      0.040001352445      0.24029

[ bondtypes ]
;       i        j  func       b0(nm) kb(kJ/mol/nm²)
   CG3C50    OG301     1   0.14110000    279742.24


[ angletypes ]
;       i        j        k  func       theta0       ktheta      ub0(nm)          kub
    CG321   CG3C50    OG301     5   102.240000   592.036000   0.00000000         0.00
   CG3C51   CG3C50    OG301     5   106.500000   485.344000   0.25610000      6694.40
    OG301   CG3C50   OG3C51     5   112.000000   836.800000   0.00000000         0.00
    CG311    OG301   CG3C50     5   107.000000   543.920000   0.00000000         0.00


[ dihedraltypes ]
;       i        j        k        l  func         phi0 kphi(kJ/mol)  mult
    OG301    CG311    CG311    OG311     9     0.000000     0.836800     3
    CG311    CG311    OG301   CG3C50     9     0.000000     1.882800     3
   OG3C61    CG311    OG301   CG3C50     9     0.000000     3.430880     1
   OG3C61    CG311    OG301   CG3C50     9     0.000000     3.389040     2
   OG3C61    CG311    OG301   CG3C50     9     0.000000     1.464400     3
     HGA1    CG311    OG301   CG3C50     9     0.000000     1.464400     3
    OG311    CG321   CG3C50    OG301     9   180.000000    12.510160     1
    OG311    CG321   CG3C50    OG301     9   180.000000     9.121120     3
    OG311    CG321   CG3C50   OG3C51     9   180.000000     5.690240     1
    OG311    CG321   CG3C50   OG3C51     9   180.000000     8.493520     2
     HGA2    CG321   CG3C50    OG301     9     0.000000     0.000000     3
    OG301   CG3C50   CG3C51   CG3C51     9   180.000000     8.368000     3
    OG301   CG3C50   CG3C51   CG3C51     9     0.000000     1.673600     5
    OG301   CG3C50   CG3C51   CG3C51     9     0.000000     3.347200     6
    OG301   CG3C50   CG3C51    OG311     9     0.000000     0.000000     3
    OG301   CG3C50   CG3C51     HGA1     9     0.000000     0.815880     3
   OG3C51   CG3C50   CG3C51   CG3C51     9     0.000000     0.000000     3
   OG3C51   CG3C50   CG3C51    OG311     9     0.000000    13.430640     3
   OG3C51   CG3C50   CG3C51    OG311     9   180.000000     7.824080     4
   OG3C51   CG3C50   CG3C51    OG311     9     0.000000     0.125520     5
   OG3C51   CG3C50   CG3C51    OG311     9     0.000000     3.430880     6
    CG321   CG3C50    OG301    CG311     9     0.000000     0.000000     1
    CG321   CG3C50    OG301    CG311     9     0.000000     0.920480     3
   CG3C51   CG3C50    OG301    CG311     9   180.000000     0.836800     1
   CG3C51   CG3C50    OG301    CG311     9     0.000000     1.255200     3
   OG3C51   CG3C50    OG301    CG311     9     0.000000     2.510400     2
   OG3C51   CG3C50    OG301    CG311     9     0.000000     0.836800     3
    OG301   CG3C50   OG3C51   CG3C51     9     0.000000    13.388800     2
    OG301   CG3C50   OG3C51   CG3C51     9     0.000000     7.949600     3
    OG301   CG3C50   OG3C51   CG3C51     9   180.000000     4.184000     4
   CG3C50   CG3C51   CG3C51   CG3C51     9   180.000000     1.715440     3
    CG321   CG3C51   OG3C51   CG3C50     9     0.000000     1.255200     3
   CG3C51   CG3C51   OG3C51   CG3C50     9     0.000000     2.092000     3